CHOLESTEROL Molecule
74
1    CHL1 O3       1   2.476   2.511   3.419
1    CHL1 H3       2   2.402   2.571   3.426
1    CHL1 C3       3   2.510   2.502   3.281
1    CHL1 H3       4   2.619   2.493   3.262
1    CHL1 C4       5   2.463   2.630   3.210
1    CHL1 H4A      6   2.354   2.624   3.227
1    CHL1 H4B      7   2.507   2.718   3.262
1    CHL1 C5       8   2.485   2.636   3.062
1    CHL1 C6       9   2.527   2.751   3.005
1    CHL1 H6      10   2.540   2.831   3.078
1    CHL1 C7      11   2.547   2.767   2.857
1    CHL1 H7A     12   2.485   2.852   2.821
1    CHL1 H7B     13   2.652   2.788   2.830
1    CHL1 C8      14   2.509   2.637   2.784
1    CHL1 H8      15   2.403   2.659   2.757
1    CHL1 C14     16   2.574   2.618   2.650
1    CHL1 H14     17   2.683   2.600   2.667
1    CHL1 C13     18   2.522   2.511   2.559
1    CHL1 C18     19   2.375   2.538   2.525
1    CHL1 H18A    20   2.316   2.544   2.621
1    CHL1 H18B    21   2.351   2.629   2.465
1    CHL1 H18C    22   2.330   2.460   2.462
1    CHL1 C12     23   2.534   2.375   2.628
1    CHL1 H12A    24   2.471   2.304   2.570
1    CHL1 H12B    25   2.640   2.342   2.626
1    CHL1 C11     26   2.472   2.386   2.768
1    CHL1 H11A    27   2.362   2.388   2.761
1    CHL1 H11B    28   2.500   2.295   2.825
1    CHL1 C9      29   2.518   2.505   2.854
1    CHL1 H9      30   2.626   2.482   2.864
1    CHL1 C10     31   2.452   2.509   2.989
1    CHL1 C19     32   2.299   2.506   2.972
1    CHL1 H19A    33   2.266   2.572   2.889
1    CHL1 H19B    34   2.265   2.404   2.947
1    CHL1 H19C    35   2.251   2.553   3.061
1    CHL1 C1      36   2.489   2.379   3.062
1    CHL1 H1A     37   2.448   2.285   3.018
1    CHL1 H1B     38   2.599   2.361   3.065
1    CHL1 C2      39   2.454   2.377   3.211
1    CHL1 H2A     40   2.495   2.285   3.257
1    CHL1 H2B     41   2.344   2.373   3.220
1    CHL1 C17     42   2.600   2.518   2.431
1    CHL1 H17     43   2.704   2.479   2.436
1    CHL1 C16     44   2.617   2.671   2.424
1    CHL1 H16A    45   2.542   2.714   2.354
1    CHL1 H16B    46   2.717   2.713   2.403
1    CHL1 C15     47   2.582   2.739   2.556
1    CHL1 H15A    48   2.483   2.789   2.558
1    CHL1 H15B    49   2.654   2.821   2.575
1    CHL1 C20     50   2.549   2.453   2.302
1    CHL1 H20     51   2.446   2.496   2.292
1    CHL1 C21     52   2.531   2.302   2.305
1    CHL1 H21A    53   2.514   2.261   2.203
1    CHL1 H21B    54   2.454   2.270   2.378
1    CHL1 H21C    55   2.628   2.252   2.331
1    CHL1 C22     56   2.617   2.509   2.177
1    CHL1 H22A    57   2.625   2.620   2.169
1    CHL1 H22B    58   2.719   2.467   2.164
1    CHL1 C23     59   2.543   2.472   2.047
1    CHL1 H23A    60   2.531   2.363   2.039
1    CHL1 H23B    61   2.443   2.520   2.049
1    CHL1 C24     62   2.624   2.521   1.927
1    CHL1 H24A    63   2.640   2.630   1.945
1    CHL1 H24B    64   2.724   2.473   1.927
1    CHL1 C25     65   2.544   2.498   1.798
1    CHL1 H25     66   2.438   2.476   1.822
1    CHL1 C26     67   2.538   2.627   1.713
1    CHL1 H26A    68   2.462   2.614   1.632
1    CHL1 H26B    69   2.511   2.724   1.760
1    CHL1 H26C    70   2.639   2.646   1.671
1    CHL1 C27     71   2.596   2.378   1.718
1    CHL1 H27A    72   2.702   2.402   1.693
1    CHL1 H27B    73   2.602   2.292   1.789
1    CHL1 H27C    74   2.554   2.354   1.619
5 5 5
